                               Psi4 1.2.1 release

  ==> Input File <==

--------------------------------------------------------------------------
set_num_threads(1)
set_memory('1151 MB')

set { scf_mem_safety_factor 0.7 }

set { reference rks }
set { basis cc-pVDZ }

molecule MOL {
    0 1
    noreorient
    nocom
    symmetry c1
    O    1.014300  -0.002300   0.060500
    O    2.462400  -0.107500  -0.002400
    H    0.821200  -0.823600  -0.430600
    H    2.626283   0.036253   0.949080
}

set optking { frozen_dihedral = (" 3 1 2 4 ") }

energy, wfn = energy('B3LYP-D3', return_wfn=True)

import os
os.chdir(os.environ['HTMD_PSI4_WORKDIR'])

oeprop(wfn, 'DIPOLE', 'QUADRUPOLE', 'MULLIKEN_CHARGES')

with open('psi4out.xyz', 'w') as f:
    f.write('4 ' )
    f.write('%.12f\n' % energy)
    f.write(MOL.save_string_xyz())
--------------------------------------------------------------------------

    Molecular point group: c1

    Geometry (in Angstrom), charge = 0, multiplicity = 1:

       Center              X                  Y                   Z               Mass
    ------------   -----------------  -----------------  -----------------  -----------------
         O            1.014300000000    -0.002300000000     0.060500000000    15.994914619560
         O            2.462400000000    -0.107500000000    -0.002400000000    15.994914619560
         H            0.821200000000    -0.823600000000    -0.430600000000     1.007825032070
         H            2.626283000000     0.036253000000     0.949080000000     1.007825032070

  Charge       = 0
  Multiplicity = 1
  Basis Set: CC-PVDZ
    Blend: CC-PVDZ
  Basis Set: (CC-PVDZ AUX)
    Blend: CC-PVDZ-JKFIT

    Orbital Energies [Eh]
    ---------------------

    Doubly Occupied:

       1A    -19.186982     2A    -19.186941     3A     -1.111123
       4A     -0.886374     5A     -0.505517     6A     -0.494583
       7A     -0.407762     8A     -0.326187     9A     -0.258402

  @DF-RKS Final Energy:  -151.55035388332408

   => Energetics <=

    Nuclear Repulsion Energy =             36.7942273764249776
    One-Electron Energy =                -281.5767734573920507
    Two-Electron Energy =                 107.6951309621918824
    DFT Exchange-Correlation Energy =     -14.4626134145488834
    Empirical Dispersion Energy =          -0.0003253500000000
    VV10 Nonlocal Energy =                  0.0000000000000000
    Total Energy =                       -151.5503538833240782

  Dipole Moment: [D]
     X:    -0.0505      Y:    -1.1710      Z:     0.7958     Total:     1.4167

  Mulliken Charges: (a.u.)
   Center  Symbol    Alpha    Beta     Spin     Total
       1     O     4.09119  4.09119  0.00000 -0.18237
       2     O     4.09117  4.09117  0.00000 -0.18233
       3     H     0.40881  0.40881  0.00000  0.18238
       4     H     0.40883  0.40883  0.00000  0.18233

   Total alpha =  9.00000, Total beta =  9.00000, Total charge = -0.00000

*** Psi4 exiting successfully. Buy a developer a beer!
