                               Psi4 1.2.1 release

  ==> Input File <==

--------------------------------------------------------------------------
set_num_threads(1)
set_memory('1151 MB')

set { scf_mem_safety_factor 0.7 }

set { reference rks }
set { basis cc-pVDZ }

molecule MOL {
    0 1
    noreorient
    nocom
    symmetry c1
    O    1.014300  -0.002300   0.060500
    O    2.462400  -0.107500  -0.002400
    H    0.821200  -0.823600  -0.430600
    H    2.511063  -0.430985  -0.922088
}

set optking { frozen_dihedral = (" 3 1 2 4 ") }

energy, wfn = energy('B3LYP-D3', return_wfn=True)

import os
os.chdir(os.environ['HTMD_PSI4_WORKDIR'])

oeprop(wfn, 'DIPOLE', 'QUADRUPOLE', 'MULLIKEN_CHARGES')

with open('psi4out.xyz', 'w') as f:
    f.write('4 ' )
    f.write('%.12f\n' % energy)
    f.write(MOL.save_string_xyz())
--------------------------------------------------------------------------

    Molecular point group: c1

    Geometry (in Angstrom), charge = 0, multiplicity = 1:

       Center              X                  Y                   Z               Mass
    ------------   -----------------  -----------------  -----------------  -----------------
         O            1.014300000000    -0.002300000000     0.060500000000    15.994914619560
         O            2.462400000000    -0.107500000000    -0.002400000000    15.994914619560
         H            0.821200000000    -0.823600000000    -0.430600000000     1.007825032070
         H            2.511063000000    -0.430985000000    -0.922088000000     1.007825032070

  Charge       = 0
  Multiplicity = 1
  Basis Set: CC-PVDZ
    Blend: CC-PVDZ
  Basis Set: (CC-PVDZ AUX)
    Blend: CC-PVDZ-JKFIT

    Orbital Energies [Eh]
    ---------------------

    Doubly Occupied:

       1A    -19.191838     2A    -19.191805     3A     -1.120480
       4A     -0.887420     5A     -0.553731     6A     -0.431461
       7A     -0.427086     8A     -0.343586     9A     -0.256589

  @DF-RKS Final Energy:  -151.53919190532937

   => Energetics <=

    Nuclear Repulsion Energy =             36.8698649288927172
    One-Electron Energy =                -281.6259297063160716
    Two-Electron Energy =                 107.6793387318845276
    DFT Exchange-Correlation Energy =     -14.4622767997905814
    Empirical Dispersion Energy =          -0.0001890600000000
    VV10 Nonlocal Energy =                  0.0000000000000000
    Total Energy =                       -151.5391919053293748

  Dipole Moment: [D]
     X:    -0.2357      Y:    -1.8683      Z:    -2.3025     Total:     2.9745

  Mulliken Charges: (a.u.)
   Center  Symbol    Alpha    Beta     Spin     Total
       1     O     4.08085  4.08085  0.00000 -0.16169
       2     O     4.08083  4.08083  0.00000 -0.16166
       3     H     0.41915  0.41915  0.00000  0.16169
       4     H     0.41917  0.41917  0.00000  0.16166

   Total alpha =  9.00000, Total beta =  9.00000, Total charge =  0.00000

*** Psi4 exiting successfully. Buy a developer a beer!
